PSF

      10 !NTITLE
 REMARKS original generated structure x-plor psf file
 REMARKS 5 patches were applied to the molecule.
 REMARKS topology 2JVX_1fr_autopsf-temp.top 
 REMARKS segment P1 { first NTER; last CTER; auto angles dihedrals }
 REMARKS segment O1 { first NONE; last NONE; auto angles dihedrals }
 REMARKS patch NTER P1:1  
 REMARKS patch CTER P1:28  
 REMARKS patch CYN P1:6  
 REMARKS patch CYN P1:9  
 REMARKS patch CYN P1:26  

     423 !NATOM
       1 P1   1    SER  N    NH3   -0.300000       14.0070           0
       2 P1   1    SER  HT1  HC     0.330000        1.0080           0
       3 P1   1    SER  HT2  HC     0.330000        1.0080           0
       4 P1   1    SER  HT3  HC     0.330000        1.0080           0
       5 P1   1    SER  CA   CT1    0.210000       12.0110           0
       6 P1   1    SER  HA   HB     0.100000        1.0080           0
       7 P1   1    SER  CB   CT2    0.050000       12.0110           0
       8 P1   1    SER  HB1  HA     0.090000        1.0080           0
       9 P1   1    SER  HB2  HA     0.090000        1.0080           0
      10 P1   1    SER  OG   OH1   -0.660000       15.9990           0
      11 P1   1    SER  HG1  H      0.430000        1.0080           0
      12 P1   1    SER  C    C      0.510000       12.0110           0
      13 P1   1    SER  O    O     -0.510000       15.9990           0
      14 P1   2    SER  N    NH1   -0.470000       14.0070           0
      15 P1   2    SER  HN   H      0.310000        1.0080           0
      16 P1   2    SER  CA   CT1    0.070000       12.0110           0
      17 P1   2    SER  HA   HB     0.090000        1.0080           0
      18 P1   2    SER  CB   CT2    0.050000       12.0110           0
      19 P1   2    SER  HB1  HA     0.090000        1.0080           0
      20 P1   2    SER  HB2  HA     0.090000        1.0080           0
      21 P1   2    SER  OG   OH1   -0.660000       15.9990           0
      22 P1   2    SER  HG1  H      0.430000        1.0080           0
      23 P1   2    SER  C    C      0.510000       12.0110           0
      24 P1   2    SER  O    O     -0.510000       15.9990           0
      25 P1   3    ASP  N    NH1   -0.470000       14.0070           0
      26 P1   3    ASP  HN   H      0.310000        1.0080           0
      27 P1   3    ASP  CA   CT1    0.070000       12.0110           0
      28 P1   3    ASP  HA   HB     0.090000        1.0080           0
      29 P1   3    ASP  CB   CT2   -0.280000       12.0110           0
      30 P1   3    ASP  HB1  HA     0.090000        1.0080           0
      31 P1   3    ASP  HB2  HA     0.090000        1.0080           0
      32 P1   3    ASP  CG   CC     0.620000       12.0110           0
      33 P1   3    ASP  OD1  OC    -0.760000       15.9990           0
      34 P1   3    ASP  OD2  OC    -0.760000       15.9990           0
      35 P1   3    ASP  C    C      0.510000       12.0110           0
      36 P1   3    ASP  O    O     -0.510000       15.9990           0
      37 P1   4    PHE  N    NH1   -0.470000       14.0070           0
      38 P1   4    PHE  HN   H      0.310000        1.0080           0
      39 P1   4    PHE  CA   CT1    0.070000       12.0110           0
      40 P1   4    PHE  HA   HB     0.090000        1.0080           0
      41 P1   4    PHE  CB   CT2   -0.180000       12.0110           0
      42 P1   4    PHE  HB1  HA     0.090000        1.0080           0
      43 P1   4    PHE  HB2  HA     0.090000        1.0080           0
      44 P1   4    PHE  CG   CA     0.000000       12.0110           0
      45 P1   4    PHE  CD1  CA    -0.115000       12.0110           0
      46 P1   4    PHE  HD1  HP     0.115000        1.0080           0
      47 P1   4    PHE  CE1  CA    -0.115000       12.0110           0
      48 P1   4    PHE  HE1  HP     0.115000        1.0080           0
      49 P1   4    PHE  CZ   CA    -0.115000       12.0110           0
      50 P1   4    PHE  HZ   HP     0.115000        1.0080           0
      51 P1   4    PHE  CD2  CA    -0.115000       12.0110           0
      52 P1   4    PHE  HD2  HP     0.115000        1.0080           0
      53 P1   4    PHE  CE2  CA    -0.115000       12.0110           0
      54 P1   4    PHE  HE2  HP     0.115000        1.0080           0
      55 P1   4    PHE  C    C      0.510000       12.0110           0
      56 P1   4    PHE  O    O     -0.510000       15.9990           0
      57 P1   5    CYS  N    NH1   -0.470000       14.0070           0
      58 P1   5    CYS  HN   H      0.310000        1.0080           0
      59 P1   5    CYS  CA   CT1    0.070000       12.0110           0
      60 P1   5    CYS  HA   HB     0.090000        1.0080           0
      61 P1   5    CYS  CB   CT2   -0.110000       12.0110           0
      62 P1   5    CYS  HB1  HA     0.090000        1.0080           0
      63 P1   5    CYS  HB2  HA     0.090000        1.0080           0
      64 P1   5    CYS  SG   S     -0.230000       32.0600           0
      65 P1   5    CYS  HG1  HS     0.160000        1.0080           0
      66 P1   5    CYS  C    C      0.510000       12.0110           0
      67 P1   5    CYS  O    O     -0.510000       15.9990           0
      68 P1   6    CYS  CB   CT2   -0.380000       12.0110           0
      69 P1   6    CYS  SG   S     -0.800000       32.0600           0
      70 P1   6    CYS  N    NH1   -0.470000       14.0070           0
      71 P1   6    CYS  HN   H      0.310000        1.0080           0
      72 P1   6    CYS  CA   CT1    0.070000       12.0110           0
      73 P1   6    CYS  HA   HB     0.090000        1.0080           0
      74 P1   6    CYS  HB1  HA     0.090000        1.0080           0
      75 P1   6    CYS  HB2  HA     0.090000        1.0080           0
      76 P1   6    CYS  C    C      0.510000       12.0110           0
      77 P1   6    CYS  O    O     -0.510000       15.9990           0
      78 P1   7    PRO  N    N     -0.290000       14.0070           0
      79 P1   7    PRO  CD   CP3    0.000000       12.0110           0
      80 P1   7    PRO  HD1  HA     0.090000        1.0080           0
      81 P1   7    PRO  HD2  HA     0.090000        1.0080           0
      82 P1   7    PRO  CA   CP1    0.020000       12.0110           0
      83 P1   7    PRO  HA   HB     0.090000        1.0080           0
      84 P1   7    PRO  CB   CP2   -0.180000       12.0110           0
      85 P1   7    PRO  HB1  HA     0.090000        1.0080           0
      86 P1   7    PRO  HB2  HA     0.090000        1.0080           0
      87 P1   7    PRO  CG   CP2   -0.180000       12.0110           0
      88 P1   7    PRO  HG1  HA     0.090000        1.0080           0
      89 P1   7    PRO  HG2  HA     0.090000        1.0080           0
      90 P1   7    PRO  C    C      0.510000       12.0110           0
      91 P1   7    PRO  O    O     -0.510000       15.9990           0
      92 P1   8    LYS  N    NH1   -0.470000       14.0070           0
      93 P1   8    LYS  HN   H      0.310000        1.0080           0
      94 P1   8    LYS  CA   CT1    0.070000       12.0110           0
      95 P1   8    LYS  HA   HB     0.090000        1.0080           0
      96 P1   8    LYS  CB   CT2   -0.180000       12.0110           0
      97 P1   8    LYS  HB1  HA     0.090000        1.0080           0
      98 P1   8    LYS  HB2  HA     0.090000        1.0080           0
      99 P1   8    LYS  CG   CT2   -0.180000       12.0110           0
     100 P1   8    LYS  HG1  HA     0.090000        1.0080           0
     101 P1   8    LYS  HG2  HA     0.090000        1.0080           0
     102 P1   8    LYS  CD   CT2   -0.180000       12.0110           0
     103 P1   8    LYS  HD1  HA     0.090000        1.0080           0
     104 P1   8    LYS  HD2  HA     0.090000        1.0080           0
     105 P1   8    LYS  CE   CT2    0.210000       12.0110           0
     106 P1   8    LYS  HE1  HA     0.050000        1.0080           0
     107 P1   8    LYS  HE2  HA     0.050000        1.0080           0
     108 P1   8    LYS  NZ   NH3   -0.300000       14.0070           0
     109 P1   8    LYS  HZ1  HC     0.330000        1.0080           0
     110 P1   8    LYS  HZ2  HC     0.330000        1.0080           0
     111 P1   8    LYS  HZ3  HC     0.330000        1.0080           0
     112 P1   8    LYS  C    C      0.510000       12.0110           0
     113 P1   8    LYS  O    O     -0.510000       15.9990           0
     114 P1   9    CYS  CB   CT2   -0.380000       12.0110           0
     115 P1   9    CYS  SG   S     -0.800000       32.0600           0
     116 P1   9    CYS  N    NH1   -0.470000       14.0070           0
     117 P1   9    CYS  HN   H      0.310000        1.0080           0
     118 P1   9    CYS  CA   CT1    0.070000       12.0110           0
     119 P1   9    CYS  HA   HB     0.090000        1.0080           0
     120 P1   9    CYS  HB1  HA     0.090000        1.0080           0
     121 P1   9    CYS  HB2  HA     0.090000        1.0080           0
     122 P1   9    CYS  C    C      0.510000       12.0110           0
     123 P1   9    CYS  O    O     -0.510000       15.9990           0
     124 P1   10   GLN  N    NH1   -0.470000       14.0070           0
     125 P1   10   GLN  HN   H      0.310000        1.0080           0
     126 P1   10   GLN  CA   CT1    0.070000       12.0110           0
     127 P1   10   GLN  HA   HB     0.090000        1.0080           0
     128 P1   10   GLN  CB   CT2   -0.180000       12.0110           0
     129 P1   10   GLN  HB1  HA     0.090000        1.0080           0
     130 P1   10   GLN  HB2  HA     0.090000        1.0080           0
     131 P1   10   GLN  CG   CT2   -0.180000       12.0110           0
     132 P1   10   GLN  HG1  HA     0.090000        1.0080           0
     133 P1   10   GLN  HG2  HA     0.090000        1.0080           0
     134 P1   10   GLN  CD   CC     0.550000       12.0110           0
     135 P1   10   GLN  OE1  O     -0.550000       15.9990           0
     136 P1   10   GLN  NE2  NH2   -0.620000       14.0070           0
     137 P1   10   GLN  HE21 H      0.320000        1.0080           0
     138 P1   10   GLN  HE22 H      0.300000        1.0080           0
     139 P1   10   GLN  C    C      0.510000       12.0110           0
     140 P1   10   GLN  O    O     -0.510000       15.9990           0
     141 P1   11   TYR  N    NH1   -0.470000       14.0070           0
     142 P1   11   TYR  HN   H      0.310000        1.0080           0
     143 P1   11   TYR  CA   CT1    0.070000       12.0110           0
     144 P1   11   TYR  HA   HB     0.090000        1.0080           0
     145 P1   11   TYR  CB   CT2   -0.180000       12.0110           0
     146 P1   11   TYR  HB1  HA     0.090000        1.0080           0
     147 P1   11   TYR  HB2  HA     0.090000        1.0080           0
     148 P1   11   TYR  CG   CA     0.000000       12.0110           0
     149 P1   11   TYR  CD1  CA    -0.115000       12.0110           0
     150 P1   11   TYR  HD1  HP     0.115000        1.0080           0
     151 P1   11   TYR  CE1  CA    -0.115000       12.0110           0
     152 P1   11   TYR  HE1  HP     0.115000        1.0080           0
     153 P1   11   TYR  CZ   CA     0.110000       12.0110           0
     154 P1   11   TYR  OH   OH1   -0.540000       15.9990           0
     155 P1   11   TYR  HH   H      0.430000        1.0080           0
     156 P1   11   TYR  CD2  CA    -0.115000       12.0110           0
     157 P1   11   TYR  HD2  HP     0.115000        1.0080           0
     158 P1   11   TYR  CE2  CA    -0.115000       12.0110           0
     159 P1   11   TYR  HE2  HP     0.115000        1.0080           0
     160 P1   11   TYR  C    C      0.510000       12.0110           0
     161 P1   11   TYR  O    O     -0.510000       15.9990           0
     162 P1   12   GLN  N    NH1   -0.470000       14.0070           0
     163 P1   12   GLN  HN   H      0.310000        1.0080           0
     164 P1   12   GLN  CA   CT1    0.070000       12.0110           0
     165 P1   12   GLN  HA   HB     0.090000        1.0080           0
     166 P1   12   GLN  CB   CT2   -0.180000       12.0110           0
     167 P1   12   GLN  HB1  HA     0.090000        1.0080           0
     168 P1   12   GLN  HB2  HA     0.090000        1.0080           0
     169 P1   12   GLN  CG   CT2   -0.180000       12.0110           0
     170 P1   12   GLN  HG1  HA     0.090000        1.0080           0
     171 P1   12   GLN  HG2  HA     0.090000        1.0080           0
     172 P1   12   GLN  CD   CC     0.550000       12.0110           0
     173 P1   12   GLN  OE1  O     -0.550000       15.9990           0
     174 P1   12   GLN  NE2  NH2   -0.620000       14.0070           0
     175 P1   12   GLN  HE21 H      0.320000        1.0080           0
     176 P1   12   GLN  HE22 H      0.300000        1.0080           0
     177 P1   12   GLN  C    C      0.510000       12.0110           0
     178 P1   12   GLN  O    O     -0.510000       15.9990           0
     179 P1   13   ALA  N    NH1   -0.470000       14.0070           0
     180 P1   13   ALA  HN   H      0.310000        1.0080           0
     181 P1   13   ALA  CA   CT1    0.070000       12.0110           0
     182 P1   13   ALA  HA   HB     0.090000        1.0080           0
     183 P1   13   ALA  CB   CT3   -0.270000       12.0110           0
     184 P1   13   ALA  HB1  HA     0.090000        1.0080           0
     185 P1   13   ALA  HB2  HA     0.090000        1.0080           0
     186 P1   13   ALA  HB3  HA     0.090000        1.0080           0
     187 P1   13   ALA  C    C      0.510000       12.0110           0
     188 P1   13   ALA  O    O     -0.510000       15.9990           0
     189 P1   14   PRO  N    N     -0.290000       14.0070           0
     190 P1   14   PRO  CD   CP3    0.000000       12.0110           0
     191 P1   14   PRO  HD1  HA     0.090000        1.0080           0
     192 P1   14   PRO  HD2  HA     0.090000        1.0080           0
     193 P1   14   PRO  CA   CP1    0.020000       12.0110           0
     194 P1   14   PRO  HA   HB     0.090000        1.0080           0
     195 P1   14   PRO  CB   CP2   -0.180000       12.0110           0
     196 P1   14   PRO  HB1  HA     0.090000        1.0080           0
     197 P1   14   PRO  HB2  HA     0.090000        1.0080           0
     198 P1   14   PRO  CG   CP2   -0.180000       12.0110           0
     199 P1   14   PRO  HG1  HA     0.090000        1.0080           0
     200 P1   14   PRO  HG2  HA     0.090000        1.0080           0
     201 P1   14   PRO  C    C      0.510000       12.0110           0
     202 P1   14   PRO  O    O     -0.510000       15.9990           0
     203 P1   15   ASP  N    NH1   -0.470000       14.0070           0
     204 P1   15   ASP  HN   H      0.310000        1.0080           0
     205 P1   15   ASP  CA   CT1    0.070000       12.0110           0
     206 P1   15   ASP  HA   HB     0.090000        1.0080           0
     207 P1   15   ASP  CB   CT2   -0.280000       12.0110           0
     208 P1   15   ASP  HB1  HA     0.090000        1.0080           0
     209 P1   15   ASP  HB2  HA     0.090000        1.0080           0
     210 P1   15   ASP  CG   CC     0.620000       12.0110           0
     211 P1   15   ASP  OD1  OC    -0.760000       15.9990           0
     212 P1   15   ASP  OD2  OC    -0.760000       15.9990           0
     213 P1   15   ASP  C    C      0.510000       12.0110           0
     214 P1   15   ASP  O    O     -0.510000       15.9990           0
     215 P1   16   MET  N    NH1   -0.470000       14.0070           0
     216 P1   16   MET  HN   H      0.310000        1.0080           0
     217 P1   16   MET  CA   CT1    0.070000       12.0110           0
     218 P1   16   MET  HA   HB     0.090000        1.0080           0
     219 P1   16   MET  CB   CT2   -0.180000       12.0110           0
     220 P1   16   MET  HB1  HA     0.090000        1.0080           0
     221 P1   16   MET  HB2  HA     0.090000        1.0080           0
     222 P1   16   MET  CG   CT2   -0.140000       12.0110           0
     223 P1   16   MET  HG1  HA     0.090000        1.0080           0
     224 P1   16   MET  HG2  HA     0.090000        1.0080           0
     225 P1   16   MET  SD   S     -0.090000       32.0600           0
     226 P1   16   MET  CE   CT3   -0.220000       12.0110           0
     227 P1   16   MET  HE1  HA     0.090000        1.0080           0
     228 P1   16   MET  HE2  HA     0.090000        1.0080           0
     229 P1   16   MET  HE3  HA     0.090000        1.0080           0
     230 P1   16   MET  C    C      0.510000       12.0110           0
     231 P1   16   MET  O    O     -0.510000       15.9990           0
     232 P1   17   ASP  N    NH1   -0.470000       14.0070           0
     233 P1   17   ASP  HN   H      0.310000        1.0080           0
     234 P1   17   ASP  CA   CT1    0.070000       12.0110           0
     235 P1   17   ASP  HA   HB     0.090000        1.0080           0
     236 P1   17   ASP  CB   CT2   -0.280000       12.0110           0
     237 P1   17   ASP  HB1  HA     0.090000        1.0080           0
     238 P1   17   ASP  HB2  HA     0.090000        1.0080           0
     239 P1   17   ASP  CG   CC     0.620000       12.0110           0
     240 P1   17   ASP  OD1  OC    -0.760000       15.9990           0
     241 P1   17   ASP  OD2  OC    -0.760000       15.9990           0
     242 P1   17   ASP  C    C      0.510000       12.0110           0
     243 P1   17   ASP  O    O     -0.510000       15.9990           0
     244 P1   18   THR  N    NH1   -0.470000       14.0070           0
     245 P1   18   THR  HN   H      0.310000        1.0080           0
     246 P1   18   THR  CA   CT1    0.070000       12.0110           0
     247 P1   18   THR  HA   HB     0.090000        1.0080           0
     248 P1   18   THR  CB   CT1    0.140000       12.0110           0
     249 P1   18   THR  HB   HA     0.090000        1.0080           0
     250 P1   18   THR  OG1  OH1   -0.660000       15.9990           0
     251 P1   18   THR  HG1  H      0.430000        1.0080           0
     252 P1   18   THR  CG2  CT3   -0.270000       12.0110           0
     253 P1   18   THR  HG21 HA     0.090000        1.0080           0
     254 P1   18   THR  HG22 HA     0.090000        1.0080           0
     255 P1   18   THR  HG23 HA     0.090000        1.0080           0
     256 P1   18   THR  C    C      0.510000       12.0110           0
     257 P1   18   THR  O    O     -0.510000       15.9990           0
     258 P1   19   LEU  N    NH1   -0.470000       14.0070           0
     259 P1   19   LEU  HN   H      0.310000        1.0080           0
     260 P1   19   LEU  CA   CT1    0.070000       12.0110           0
     261 P1   19   LEU  HA   HB     0.090000        1.0080           0
     262 P1   19   LEU  CB   CT2   -0.180000       12.0110           0
     263 P1   19   LEU  HB1  HA     0.090000        1.0080           0
     264 P1   19   LEU  HB2  HA     0.090000        1.0080           0
     265 P1   19   LEU  CG   CT1   -0.090000       12.0110           0
     266 P1   19   LEU  HG   HA     0.090000        1.0080           0
     267 P1   19   LEU  CD1  CT3   -0.270000       12.0110           0
     268 P1   19   LEU  HD11 HA     0.090000        1.0080           0
     269 P1   19   LEU  HD12 HA     0.090000        1.0080           0
     270 P1   19   LEU  HD13 HA     0.090000        1.0080           0
     271 P1   19   LEU  CD2  CT3   -0.270000       12.0110           0
     272 P1   19   LEU  HD21 HA     0.090000        1.0080           0
     273 P1   19   LEU  HD22 HA     0.090000        1.0080           0
     274 P1   19   LEU  HD23 HA     0.090000        1.0080           0
     275 P1   19   LEU  C    C      0.510000       12.0110           0
     276 P1   19   LEU  O    O     -0.510000       15.9990           0
     277 P1   20   GLN  N    NH1   -0.470000       14.0070           0
     278 P1   20   GLN  HN   H      0.310000        1.0080           0
     279 P1   20   GLN  CA   CT1    0.070000       12.0110           0
     280 P1   20   GLN  HA   HB     0.090000        1.0080           0
     281 P1   20   GLN  CB   CT2   -0.180000       12.0110           0
     282 P1   20   GLN  HB1  HA     0.090000        1.0080           0
     283 P1   20   GLN  HB2  HA     0.090000        1.0080           0
     284 P1   20   GLN  CG   CT2   -0.180000       12.0110           0
     285 P1   20   GLN  HG1  HA     0.090000        1.0080           0
     286 P1   20   GLN  HG2  HA     0.090000        1.0080           0
     287 P1   20   GLN  CD   CC     0.550000       12.0110           0
     288 P1   20   GLN  OE1  O     -0.550000       15.9990           0
     289 P1   20   GLN  NE2  NH2   -0.620000       14.0070           0
     290 P1   20   GLN  HE21 H      0.320000        1.0080           0
     291 P1   20   GLN  HE22 H      0.300000        1.0080           0
     292 P1   20   GLN  C    C      0.510000       12.0110           0
     293 P1   20   GLN  O    O     -0.510000       15.9990           0
     294 P1   21   ILE  N    NH1   -0.470000       14.0070           0
     295 P1   21   ILE  HN   H      0.310000        1.0080           0
     296 P1   21   ILE  CA   CT1    0.070000       12.0110           0
     297 P1   21   ILE  HA   HB     0.090000        1.0080           0
     298 P1   21   ILE  CB   CT1   -0.090000       12.0110           0
     299 P1   21   ILE  HB   HA     0.090000        1.0080           0
     300 P1   21   ILE  CG2  CT3   -0.270000       12.0110           0
     301 P1   21   ILE  HG21 HA     0.090000        1.0080           0
     302 P1   21   ILE  HG22 HA     0.090000        1.0080           0
     303 P1   21   ILE  HG23 HA     0.090000        1.0080           0
     304 P1   21   ILE  CG1  CT2   -0.180000       12.0110           0
     305 P1   21   ILE  HG11 HA     0.090000        1.0080           0
     306 P1   21   ILE  HG12 HA     0.090000        1.0080           0
     307 P1   21   ILE  CD   CT3   -0.270000       12.0110           0
     308 P1   21   ILE  HD1  HA     0.090000        1.0080           0
     309 P1   21   ILE  HD2  HA     0.090000        1.0080           0
     310 P1   21   ILE  HD3  HA     0.090000        1.0080           0
     311 P1   21   ILE  C    C      0.510000       12.0110           0
     312 P1   21   ILE  O    O     -0.510000       15.9990           0
     313 P1   22   HSD  N    NH1   -0.470000       14.0070           0
     314 P1   22   HSD  HN   H      0.310000        1.0080           0
     315 P1   22   HSD  CA   CT1    0.070000       12.0110           0
     316 P1   22   HSD  HA   HB     0.090000        1.0080           0
     317 P1   22   HSD  CB   CT2   -0.090000       12.0110           0
     318 P1   22   HSD  HB1  HA     0.090000        1.0080           0
     319 P1   22   HSD  HB2  HA     0.090000        1.0080           0
     320 P1   22   HSD  ND1  NR1   -0.360000       14.0070           0
     321 P1   22   HSD  HD1  H      0.320000        1.0080           0
     322 P1   22   HSD  CG   CPH1  -0.050000       12.0110           0
     323 P1   22   HSD  CE1  CPH2   0.250000       12.0110           0
     324 P1   22   HSD  HE1  HR1    0.130000        1.0080           0
     325 P1   22   HSD  NE2  NR2   -0.700000       14.0070           0
     326 P1   22   HSD  CD2  CPH1   0.220000       12.0110           0
     327 P1   22   HSD  HD2  HR3    0.100000        1.0080           0
     328 P1   22   HSD  C    C      0.510000       12.0110           0
     329 P1   22   HSD  O    O     -0.510000       15.9990           0
     330 P1   23   VAL  N    NH1   -0.470000       14.0070           0
     331 P1   23   VAL  HN   H      0.310000        1.0080           0
     332 P1   23   VAL  CA   CT1    0.070000       12.0110           0
     333 P1   23   VAL  HA   HB     0.090000        1.0080           0
     334 P1   23   VAL  CB   CT1   -0.090000       12.0110           0
     335 P1   23   VAL  HB   HA     0.090000        1.0080           0
     336 P1   23   VAL  CG1  CT3   -0.270000       12.0110           0
     337 P1   23   VAL  HG11 HA     0.090000        1.0080           0
     338 P1   23   VAL  HG12 HA     0.090000        1.0080           0
     339 P1   23   VAL  HG13 HA     0.090000        1.0080           0
     340 P1   23   VAL  CG2  CT3   -0.270000       12.0110           0
     341 P1   23   VAL  HG21 HA     0.090000        1.0080           0
     342 P1   23   VAL  HG22 HA     0.090000        1.0080           0
     343 P1   23   VAL  HG23 HA     0.090000        1.0080           0
     344 P1   23   VAL  C    C      0.510000       12.0110           0
     345 P1   23   VAL  O    O     -0.510000       15.9990           0
     346 P1   24   MET  N    NH1   -0.470000       14.0070           0
     347 P1   24   MET  HN   H      0.310000        1.0080           0
     348 P1   24   MET  CA   CT1    0.070000       12.0110           0
     349 P1   24   MET  HA   HB     0.090000        1.0080           0
     350 P1   24   MET  CB   CT2   -0.180000       12.0110           0
     351 P1   24   MET  HB1  HA     0.090000        1.0080           0
     352 P1   24   MET  HB2  HA     0.090000        1.0080           0
     353 P1   24   MET  CG   CT2   -0.140000       12.0110           0
     354 P1   24   MET  HG1  HA     0.090000        1.0080           0
     355 P1   24   MET  HG2  HA     0.090000        1.0080           0
     356 P1   24   MET  SD   S     -0.090000       32.0600           0
     357 P1   24   MET  CE   CT3   -0.220000       12.0110           0
     358 P1   24   MET  HE1  HA     0.090000        1.0080           0
     359 P1   24   MET  HE2  HA     0.090000        1.0080           0
     360 P1   24   MET  HE3  HA     0.090000        1.0080           0
     361 P1   24   MET  C    C      0.510000       12.0110           0
     362 P1   24   MET  O    O     -0.510000       15.9990           0
     363 P1   25   GLU  N    NH1   -0.470000       14.0070           0
     364 P1   25   GLU  HN   H      0.310000        1.0080           0
     365 P1   25   GLU  CA   CT1    0.070000       12.0110           0
     366 P1   25   GLU  HA   HB     0.090000        1.0080           0
     367 P1   25   GLU  CB   CT2   -0.180000       12.0110           0
     368 P1   25   GLU  HB1  HA     0.090000        1.0080           0
     369 P1   25   GLU  HB2  HA     0.090000        1.0080           0
     370 P1   25   GLU  CG   CT2   -0.280000       12.0110           0
     371 P1   25   GLU  HG1  HA     0.090000        1.0080           0
     372 P1   25   GLU  HG2  HA     0.090000        1.0080           0
     373 P1   25   GLU  CD   CC     0.620000       12.0110           0
     374 P1   25   GLU  OE1  OC    -0.760000       15.9990           0
     375 P1   25   GLU  OE2  OC    -0.760000       15.9990           0
     376 P1   25   GLU  C    C      0.510000       12.0110           0
     377 P1   25   GLU  O    O     -0.510000       15.9990           0
     378 P1   26   CYS  CB   CT2   -0.380000       12.0110           0
     379 P1   26   CYS  SG   S     -0.800000       32.0600           0
     380 P1   26   CYS  N    NH1   -0.470000       14.0070           0
     381 P1   26   CYS  HN   H      0.310000        1.0080           0
     382 P1   26   CYS  CA   CT1    0.070000       12.0110           0
     383 P1   26   CYS  HA   HB     0.090000        1.0080           0
     384 P1   26   CYS  HB1  HA     0.090000        1.0080           0
     385 P1   26   CYS  HB2  HA     0.090000        1.0080           0
     386 P1   26   CYS  C    C      0.510000       12.0110           0
     387 P1   26   CYS  O    O     -0.510000       15.9990           0
     388 P1   27   ILE  N    NH1   -0.470000       14.0070           0
     389 P1   27   ILE  HN   H      0.310000        1.0080           0
     390 P1   27   ILE  CA   CT1    0.070000       12.0110           0
     391 P1   27   ILE  HA   HB     0.090000        1.0080           0
     392 P1   27   ILE  CB   CT1   -0.090000       12.0110           0
     393 P1   27   ILE  HB   HA     0.090000        1.0080           0
     394 P1   27   ILE  CG2  CT3   -0.270000       12.0110           0
     395 P1   27   ILE  HG21 HA     0.090000        1.0080           0
     396 P1   27   ILE  HG22 HA     0.090000        1.0080           0
     397 P1   27   ILE  HG23 HA     0.090000        1.0080           0
     398 P1   27   ILE  CG1  CT2   -0.180000       12.0110           0
     399 P1   27   ILE  HG11 HA     0.090000        1.0080           0
     400 P1   27   ILE  HG12 HA     0.090000        1.0080           0
     401 P1   27   ILE  CD   CT3   -0.270000       12.0110           0
     402 P1   27   ILE  HD1  HA     0.090000        1.0080           0
     403 P1   27   ILE  HD2  HA     0.090000        1.0080           0
     404 P1   27   ILE  HD3  HA     0.090000        1.0080           0
     405 P1   27   ILE  C    C      0.510000       12.0110           0
     406 P1   27   ILE  O    O     -0.510000       15.9990           0
     407 P1   28   GLU  C    CC     0.340000       12.0110           0
     408 P1   28   GLU  OT1  OC    -0.670000       15.9990           0
     409 P1   28   GLU  OT2  OC    -0.670000       15.9990           0
     410 P1   28   GLU  N    NH1   -0.470000       14.0070           0
     411 P1   28   GLU  HN   H      0.310000        1.0080           0
     412 P1   28   GLU  CA   CT1    0.070000       12.0110           0
     413 P1   28   GLU  HA   HB     0.090000        1.0080           0
     414 P1   28   GLU  CB   CT2   -0.180000       12.0110           0
     415 P1   28   GLU  HB1  HA     0.090000        1.0080           0
     416 P1   28   GLU  HB2  HA     0.090000        1.0080           0
     417 P1   28   GLU  CG   CT2   -0.280000       12.0110           0
     418 P1   28   GLU  HG1  HA     0.090000        1.0080           0
     419 P1   28   GLU  HG2  HA     0.090000        1.0080           0
     420 P1   28   GLU  CD   CC     0.620000       12.0110           0
     421 P1   28   GLU  OE1  OC    -0.760000       15.9990           0
     422 P1   28   GLU  OE2  OC    -0.760000       15.9990           0
     423 O1   29   ZN2  ZN   ZN     2.000000       65.3700           0

     426 !NBOND: bonds
       1       5       2       1       3       1       4       1
       5       6       7       5       7       8       7       9
      10       7      10      11      12       5      12      14
      13      12      14      15      14      16      16      17
      18      16      18      19      18      20      21      18
      21      22      23      16      23      25      24      23
      25      26      25      27      27      28      29      27
      29      30      29      31      32      29      32      33
      34      32      35      27      35      37      36      35
      37      38      37      39      39      40      41      39
      41      42      41      43      44      41      45      46
      45      44      47      45      47      48      49      53
      49      47      49      50      51      44      51      52
      53      51      53      54      55      39      55      57
      56      55      57      58      57      59      59      60
      61      59      61      62      61      63      64      61
      64      65      66      59      66      70      67      66
      68      72      68      74      68      75      69      68
      70      71      70      72      72      73      76      72
      76      78      77      76      78      82      78      79
      80      79      81      79      82      84      83      82
      84      87      85      84      86      84      87      79
      88      87      89      87      90      82      90      92
      91      90      92      93      92      94      94      95
      96      94      96      97      96      98      99      96
      99     100      99     101     102      99     102     103
     102     104     105     102     105     106     105     107
     108     105     108     109     108     110     108     111
     112      94     112     116     113     112     114     118
     114     120     114     121     115     114     116     117
     116     118     118     119     122     118     122     124
     123     122     124     125     124     126     126     127
     128     126     128     129     128     130     131     128
     131     132     131     133     134     131     134     135
     136     134     136     137     136     138     139     126
     139     141     140     139     141     142     141     143
     143     144     145     143     145     146     145     147
     148     145     149     150     149     148     151     149
     151     152     151     153     153     158     154     153
     154     155     156     148     156     157     158     159
     158     156     160     143     160     162     161     160
     162     163     162     164     164     165     166     164
     166     167     166     168     169     166     169     170
     169     171     172     169     172     173     174     172
     174     175     174     176     177     164     177     179
     178     177     179     180     179     181     181     182
     183     181     183     184     183     185     183     186
     187     181     187     189     188     187     189     193
     189     190     191     190     192     190     193     195
     194     193     195     198     196     195     197     195
     198     190     199     198     200     198     201     193
     201     203     202     201     203     204     203     205
     205     206     207     205     207     208     207     209
     210     207     210     211     212     210     213     205
     213     215     214     213     215     216     215     217
     217     218     219     217     219     220     219     221
     222     219     222     223     222     224     225     222
     226     225     226     227     226     228     226     229
     230     217     230     232     231     230     232     233
     232     234     234     235     236     234     236     237
     236     238     239     236     239     240     241     239
     242     234     242     244     243     242     244     245
     244     246     246     247     248     246     248     249
     250     248     250     251     252     248     252     253
     252     254     252     255     256     246     256     258
     257     256     258     259     258     260     260     261
     262     260     262     263     262     264     265     262
     265     266     267     265     267     268     267     269
     267     270     271     265     271     272     271     273
     271     274     275     260     275     277     276     275
     277     278     277     279     279     280     281     279
     281     282     281     283     284     281     284     285
     284     286     287     284     287     288     289     287
     289     290     289     291     292     279     292     294
     293     292     294     295     294     296     296     297
     298     296     298     299     300     298     300     301
     300     302     300     303     304     298     304     305
     304     306     307     304     307     308     307     309
     307     310     311     296     311     313     312     311
     313     314     313     315     315     316     317     315
     317     318     317     319     320     322     320     321
     322     317     322     326     323     320     323     324
     323     325     325     326     326     327     328     315
     328     330     329     328     330     331     330     332
     332     333     334     332     334     335     336     334
     336     337     336     338     336     339     340     334
     340     341     340     342     340     343     344     332
     344     346     345     344     346     347     346     348
     348     349     350     348     350     351     350     352
     353     350     353     354     353     355     356     353
     357     356     357     358     357     359     357     360
     361     348     361     363     362     361     363     364
     363     365     365     366     367     365     367     368
     367     369     370     367     370     371     370     372
     373     370     373     374     375     373     376     365
     376     380     377     376     378     382     378     384
     378     385     379     378     380     381     380     382
     382     383     386     382     386     388     387     386
     388     389     388     390     390     391     392     390
     392     393     394     392     394     395     394     396
     394     397     398     392     398     399     398     400
     401     398     401     402     401     403     401     404
     405     390     405     410     406     405     407     409
     407     408     407     412     410     411     410     412
     412     413     414     412     414     415     414     416
     417     414     417     418     417     419     420     417
     420     421     422     420

     770 !NTHETA: angles
       1       5       6       1       5      12       2       1       5
       2       1       4       2       1       3       3       1       5
       3       1       4       4       1       5       5      12      13
       5      12      14       5       7       9       5       7       8
       5       7      10       7      10      11       7       5       6
       7       5      12       7       5       1       8       7       9
      10       7       9      10       7       8      12       5       6
      14      16      17      14      16      23      14      12      13
      15      14      12      15      14      16      16      23      24
      16      23      25      16      18      20      16      18      19
      16      18      21      16      14      12      18      21      22
      18      16      17      18      16      23      18      16      14
      19      18      20      21      18      20      21      18      19
      23      16      17      25      27      28      25      27      35
      25      23      24      26      25      23      26      25      27
      27      35      36      27      35      37      27      29      31
      27      29      30      27      29      32      27      25      23
      29      32      33      29      32      34      29      27      28
      29      27      35      29      27      25      30      29      31
      32      29      31      32      29      30      34      32      33
      35      27      28      37      39      40      37      39      55
      37      35      36      38      37      35      38      37      39
      39      55      56      39      55      57      39      41      43
      39      41      42      39      41      44      39      37      35
      41      44      45      41      44      51      41      39      40
      41      39      55      41      39      37      42      41      43
      44      51      53      44      51      52      44      41      43
      44      41      42      45      47      49      45      47      48
      46      45      44      47      49      50      47      45      44
      47      45      46      48      47      49      49      53      54
      49      53      51      51      53      54      51      44      45
      52      51      53      53      49      50      53      49      47
      55      39      40      57      59      60      57      59      66
      57      55      56      58      57      55      58      57      59
      59      66      67      59      66      70      59      61      63
      59      61      62      59      61      64      59      57      55
      61      64      65      61      59      60      61      59      66
      61      59      57      62      61      63      64      61      63
      64      61      62      66      59      60      68      72      73
      68      72      76      68      72      70      69      68      75
      69      68      74      70      72      73      70      72      76
      70      66      67      71      70      66      71      70      72
      72      76      77      72      76      78      72      68      75
      72      68      74      72      68      69      72      70      66
      74      68      75      76      72      73      78      82      83
      78      82      84      78      79      81      78      79      80
      78      76      77      79      87      89      79      87      88
      79      78      76      80      79      81      82      90      91
      82      90      92      82      84      86      82      84      85
      82      84      87      82      78      76      82      78      79
      84      87      89      84      87      88      84      87      79
      84      82      83      85      84      86      87      84      86
      87      84      85      87      79      81      87      79      80
      87      79      78      88      87      89      90      82      83
      90      82      84      90      82      78      92      94      95
      92      94     112      92      90      91      93      92      90
      93      92      94      94     112     113      94     112     116
      94      96      98      94      96      97      94      96      99
      94      92      90      96      99     101      96      99     100
      96      99     102      96      94      95      96      94     112
      96      94      92      97      96      98      99     102     104
      99     102     103      99     102     105      99      96      98
      99      96      97     100      99     101     102     105     107
     102     105     106     102     105     108     102      99     101
     102      99     100     103     102     104     105     108     111
     105     108     110     105     108     109     105     102     104
     105     102     103     106     105     107     108     105     107
     108     105     106     109     108     111     109     108     110
     110     108     111     112      94      95     114     118     119
     114     118     122     114     118     116     115     114     121
     115     114     120     116     118     119     116     118     122
     116     112     113     117     116     112     117     116     118
     118     122     123     118     122     124     118     114     121
     118     114     120     118     114     115     118     116     112
     120     114     121     122     118     119     124     126     127
     124     126     139     124     122     123     125     124     122
     125     124     126     126     139     140     126     139     141
     126     128     130     126     128     129     126     128     131
     126     124     122     128     131     133     128     131     132
     128     131     134     128     126     127     128     126     139
     128     126     124     129     128     130     131     134     135
     131     134     136     131     128     130     131     128     129
     132     131     133     134     136     138     134     136     137
     134     131     133     134     131     132     136     134     135
     137     136     138     139     126     127     141     143     144
     141     143     160     141     139     140     142     141     139
     142     141     143     143     160     161     143     160     162
     143     145     147     143     145     146     143     145     148
     143     141     139     145     148     149     145     148     156
     145     143     144     145     143     160     145     143     141
     146     145     147     148     156     158     148     156     157
     148     145     147     148     145     146     149     151     153
     149     151     152     150     149     148     151     149     148
     151     149     150     152     151     153     153     158     156
     153     158     159     153     154     155     154     153     151
     156     148     149     157     156     158     158     153     151
     158     153     154     159     158     156     160     143     144
     162     164     165     162     164     177     162     160     161
     163     162     160     163     162     164     164     177     178
     164     177     179     164     166     168     164     166     167
     164     166     169     164     162     160     166     169     171
     166     169     170     166     169     172     166     164     165
     166     164     177     166     164     162     167     166     168
     169     172     173     169     172     174     169     166     168
     169     166     167     170     169     171     172     174     176
     172     174     175     172     169     171     172     169     170
     174     172     173     175     174     176     177     164     165
     179     181     182     179     181     187     179     177     178
     180     179     177     180     179     181     181     187     188
     181     187     189     181     183     186     181     183     185
     181     183     184     181     179     177     183     181     182
     183     181     187     183     181     179     184     183     186
     184     183     185     185     183     186     187     181     182
     189     193     194     189     193     195     189     190     192
     189     190     191     189     187     188     190     198     200
     190     198     199     190     189     187     191     190     192
     193     201     202     193     201     203     193     195     197
     193     195     196     193     195     198     193     189     187
     193     189     190     195     198     200     195     198     199
     195     198     190     195     193     194     196     195     197
     198     195     197     198     195     196     198     190     192
     198     190     191     198     190     189     199     198     200
     201     193     194     201     193     195     201     193     189
     203     205     206     203     205     213     203     201     202
     204     203     201     204     203     205     205     213     214
     205     213     215     205     207     209     205     207     208
     205     207     210     205     203     201     207     210     211
     207     210     212     207     205     206     207     205     213
     207     205     203     208     207     209     210     207     209
     210     207     208     212     210     211     213     205     206
     215     217     218     215     217     230     215     213     214
     216     215     213     216     215     217     217     230     231
     217     230     232     217     219     221     217     219     220
     217     219     222     217     215     213     219     222     224
     219     222     223     219     222     225     219     217     218
     219     217     230     219     217     215     220     219     221
     222     225     226     222     219     221     222     219     220
     223     222     224     225     226     229     225     226     228
     225     226     227     225     222     224     225     222     223
     227     226     229     227     226     228     228     226     229
     230     217     218     232     234     235     232     234     242
     232     230     231     233     232     230     233     232     234
     234     242     243     234     242     244     234     236     238
     234     236     237     234     236     239     234     232     230
     236     239     240     236     239     241     236     234     235
     236     234     242     236     234     232     237     236     238
     239     236     238     239     236     237     241     239     240
     242     234     235     244     246     247     244     246     256
     244     242     243     245     244     242     245     244     246
     246     256     257     246     256     258     246     248     249
     246     248     252     246     248     250     246     244     242
     248     252     255     248     252     254     248     252     253
     248     250     251     248     246     247     248     246     256
     248     246     244     250     248     249     250     248     252
     252     248     249     253     252     255     253     252     254
     254     252     255     256     246     247     258     260     261
     258     260     275     258     256     257     259     258     256
     259     258     260     260     275     276     260     275     277
     260     262     264     260     262     263     260     262     265
     260     258     256     262     265     266     262     265     271
     262     265     267     262     260     261     262     260     275
     262     260     258     263     262     264     265     271     274
     265     271     273     265     271     272     265     267     270
     265     267     269     265     267     268     265     262     264
     265     262     263     267     265     266     267     265     271
     268     267     270     268     267     269     269     267     270
     271     265     266     272     271     274     272     271     273
     273     271     274     275     260     261     277     279     280
     277     279     292     277     275     276     278     277     275
     278     277     279     279     292     293     279     292     294
     279     281     283     279     281     282     279     281     284
     279     277     275     281     284     286     281     284     285
     281     284     287     281     279     280     281     279     292
     281     279     277     282     281     283     284     287     288
     284     287     289     284     281     283     284     281     282
     285     284     286     287     289     291     287     289     290
     287     284     286     287     284     285     289     287     288
     290     289     291     292     279     280     294     296     297
     294     296     311     294     292     293     295     294     292
     295     294     296     296     311     312     296     311     313
     296     298     299     296     298     300     296     298     304
     296     294     292     298     304     306     298     304     305
     298     304     307     298     300     303     298     300     302
     298     300     301     298     296     297     298     296     311
     298     296     294     300     298     299     301     300     303
     301     300     302     302     300     303     304     307     310
     304     307     309     304     307     308     304     298     299
     304     298     300     305     304     306     307     304     306
     307     304     305     308     307     310     308     307     309
     309     307     310     311     296     297     313     315     316
     313     315     328     313     311     312     314     313     311
     314     313     315     315     328     329     315     328     330
     315     317     319     315     317     318     315     317     322
     315     313     311     317     322     326     317     322     320
     317     315     316     317     315     328     317     315     313
     318     317     319     320     323     325     320     323     324
     320     322     326     322     320     321     322     320     323
     322     317     319     322     317     318     323     320     321
     324     323     325     325     326     322     325     326     327
     326     325     323     327     326     322     328     315     316
     330     332     333     330     332     344     330     328     329
     331     330     328     331     330     332     332     344     345
     332     344     346     332     334     335     332     334     340
     332     334     336     332     330     328     334     340     343
     334     340     342     334     340     341     334     336     339
     334     336     338     334     336     337     334     332     333
     334     332     344     334     332     330     336     334     335
     336     334     340     337     336     339     337     336     338
     338     336     339     340     334     335     341     340     343
     341     340     342     342     340     343     344     332     333
     346     348     349     346     348     361     346     344     345
     347     346     344     347     346     348     348     361     362
     348     361     363     348     350     352     348     350     351
     348     350     353     348     346     344     350     353     355
     350     353     354     350     353     356     350     348     349
     350     348     361     350     348     346     351     350     352
     353     356     357     353     350     352     353     350     351
     354     353     355     356     357     360     356     357     359
     356     357     358     356     353     355     356     353     354
     358     357     360     358     357     359     359     357     360
     361     348     349     363     365     366     363     365     376
     363     361     362     364     363     361     364     363     365
     365     376     377     365     376     380     365     367     369
     365     367     368     365     367     370     365     363     361
     367     370     372     367     370     371     367     370     373
     367     365     366     367     365     376     367     365     363
     368     367     369     370     373     374     370     373     375
     370     367     369     370     367     368     371     370     372
     373     370     372     373     370     371     375     373     374
     376     365     366     378     382     383     378     382     386
     378     382     380     379     378     385     379     378     384
     380     382     383     380     382     386     380     376     377
     381     380     376     381     380     382     382     386     387
     382     386     388     382     378     385     382     378     384
     382     378     379     382     380     376     384     378     385
     386     382     383     388     390     391     388     390     405
     388     386     387     389     388     386     389     388     390
     390     405     406     390     405     410     390     392     393
     390     392     394     390     392     398     390     388     386
     392     398     400     392     398     399     392     398     401
     392     394     397     392     394     396     392     394     395
     392     390     391     392     390     405     392     390     388
     394     392     393     395     394     397     395     394     396
     396     394     397     398     401     404     398     401     403
     398     401     402     398     392     393     398     392     394
     399     398     400     401     398     400     401     398     399
     402     401     404     402     401     403     403     401     404
     405     390     391     407     412     413     408     407     412
     409     407     412     409     407     408     410     412     413
     410     412     407     410     405     406     411     410     405
     411     410     412     412     414     416     412     414     415
     412     414     417     412     410     405     414     417     419
     414     417     418     414     417     420     414     412     413
     414     412     407     414     412     410     415     414     416
     417     420     421     417     420     422     417     414     416
     417     414     415     418     417     419     420     417     419
     420     417     418     422     420     421

    1122 !NPHI: dihedrals
       1       5       7      10       1       5       7       8
       1       5       7       9       1       5      12      14
       1       5      12      13       2       1       5       7
       2       1       5      12       2       1       5       6
       3       1       5       7       3       1       5      12
       3       1       5       6       4       1       5       7
       4       1       5      12       4       1       5       6
       5      12      14      15       5      12      14      16
       5       7      10      11       6       5       7      10
       6       5       7       8       6       5       7       9
       6       5      12      14       6       5      12      13
       7       5      12      14       7       5      12      13
       8       7       5      12       8       7      10      11
       9       7       5      12       9       7      10      11
      10       7       5      12      12      14      16      18
      12      14      16      23      12      14      16      17
      13      12      14      15      13      12      14      16
      14      16      18      21      14      16      18      19
      14      16      18      20      14      16      23      25
      14      16      23      24      15      14      16      18
      15      14      16      23      15      14      16      17
      16      23      25      26      16      23      25      27
      16      18      21      22      17      16      18      21
      17      16      18      19      17      16      18      20
      17      16      23      25      17      16      23      24
      18      16      23      25      18      16      23      24
      19      18      16      23      19      18      21      22
      20      18      16      23      20      18      21      22
      21      18      16      23      23      25      27      29
      23      25      27      35      23      25      27      28
      24      23      25      26      24      23      25      27
      25      27      29      32      25      27      29      30
      25      27      29      31      25      27      35      37
      25      27      35      36      26      25      27      29
      26      25      27      35      26      25      27      28
      27      35      37      38      27      35      37      39
      27      29      32      34      27      29      32      33
      28      27      29      32      28      27      29      30
      28      27      29      31      28      27      35      37
      28      27      35      36      29      27      35      37
      29      27      35      36      30      29      27      35
      30      29      32      34      30      29      32      33
      31      29      27      35      31      29      32      34
      31      29      32      33      32      29      27      35
      35      37      39      41      35      37      39      55
      35      37      39      40      36      35      37      38
      36      35      37      39      37      39      41      44
      37      39      41      42      37      39      41      43
      37      39      55      57      37      39      55      56
      38      37      39      41      38      37      39      55
      38      37      39      40      39      55      57      58
      39      55      57      59      39      41      44      51
      39      41      44      45      40      39      41      44
      40      39      41      42      40      39      41      43
      40      39      55      57      40      39      55      56
      41      44      51      52      41      44      51      53
      41      44      45      47      41      44      45      46
      41      39      55      57      41      39      55      56
      42      41      39      55      42      41      44      51
      42      41      44      45      43      41      39      55
      43      41      44      51      43      41      44      45
      44      51      53      49      44      51      53      54
      44      45      47      48      44      45      47      49
      44      41      39      55      45      47      49      53
      45      47      49      50      45      44      51      52
      45      44      51      53      46      45      47      48
      46      45      47      49      46      45      44      51
      47      49      53      51      47      49      53      54
      47      45      44      51      48      47      49      53
      48      47      49      50      49      53      51      52
      50      49      53      51      50      49      53      54
      52      51      53      54      55      57      59      61
      55      57      59      66      55      57      59      60
      56      55      57      58      56      55      57      59
      57      59      61      64      57      59      61      62
      57      59      61      63      57      59      66      70
      57      59      66      67      58      57      59      61
      58      57      59      66      58      57      59      60
      59      66      70      71      59      66      70      72
      59      61      64      65      60      59      61      64
      60      59      61      62      60      59      61      63
      60      59      66      70      60      59      66      67
      61      59      66      70      61      59      66      67
      62      61      59      66      62      61      64      65
      63      61      59      66      63      61      64      65
      64      61      59      66      66      70      72      68
      66      70      72      76      66      70      72      73
      67      66      70      71      67      66      70      72
      68      72      76      78      68      72      76      77
      69      68      72      76      70      72      68      69
      70      72      68      74      70      72      68      75
      70      72      76      78      70      72      76      77
      71      70      72      68      71      70      72      76
      71      70      72      73      72      76      78      82
      72      76      78      79      73      72      68      69
      73      72      68      74      73      72      68      75
      73      72      76      78      73      72      76      77
      74      68      72      76      75      68      72      76
      76      78      82      90      76      78      82      84
      76      78      82      83      76      78      79      87
      76      78      79      80      76      78      79      81
      77      76      78      82      77      76      78      79
      78      82      90      92      78      82      90      91
      78      82      84      87      78      82      84      85
      78      82      84      86      78      79      87      84
      78      79      87      88      78      79      87      89
      79      87      84      82      79      87      84      85
      79      87      84      86      79      78      82      90
      79      78      82      84      79      78      82      83
      80      79      87      84      80      79      87      88
      80      79      87      89      80      79      78      82
      81      79      87      84      81      79      87      88
      81      79      87      89      81      79      78      82
      82      90      92      93      82      90      92      94
      82      84      87      88      82      84      87      89
      82      78      79      87      83      82      90      92
      83      82      90      91      83      82      84      87
      83      82      84      85      83      82      84      86
      84      82      90      92      84      82      90      91
      85      84      82      90      85      84      87      88
      85      84      87      89      86      84      82      90
      86      84      87      88      86      84      87      89
      87      84      82      90      90      92      94      96
      90      92      94     112      90      92      94      95
      91      90      92      93      91      90      92      94
      92      94      96      99      92      94      96      97
      92      94      96      98      92      94     112     116
      92      94     112     113      93      92      94      96
      93      92      94     112      93      92      94      95
      94     112     116     117      94     112     116     118
      94      96      99     102      94      96      99     100
      94      96      99     101      95      94      96      99
      95      94      96      97      95      94      96      98
      95      94     112     116      95      94     112     113
      96      99     102     105      96      99     102     103
      96      99     102     104      96      94     112     116
      96      94     112     113      97      96      94     112
      97      96      99     102      97      96      99     100
      97      96      99     101      98      96      94     112
      98      96      99     102      98      96      99     100
      98      96      99     101      99     102     105     108
      99     102     105     106      99     102     105     107
      99      96      94     112     100      99     102     105
     100      99     102     103     100      99     102     104
     101      99     102     105     101      99     102     103
     101      99     102     104     102     105     108     109
     102     105     108     110     102     105     108     111
     103     102     105     108     103     102     105     106
     103     102     105     107     104     102     105     108
     104     102     105     106     104     102     105     107
     106     105     108     109     106     105     108     110
     106     105     108     111     107     105     108     109
     107     105     108     110     107     105     108     111
     112     116     118     114     112     116     118     122
     112     116     118     119     113     112     116     117
     113     112     116     118     114     118     122     124
     114     118     122     123     115     114     118     122
     116     118     114     115     116     118     114     120
     116     118     114     121     116     118     122     124
     116     118     122     123     117     116     118     114
     117     116     118     122     117     116     118     119
     118     122     124     125     118     122     124     126
     119     118     114     115     119     118     114     120
     119     118     114     121     119     118     122     124
     119     118     122     123     120     114     118     122
     121     114     118     122     122     124     126     128
     122     124     126     139     122     124     126     127
     123     122     124     125     123     122     124     126
     124     126     128     131     124     126     128     129
     124     126     128     130     124     126     139     141
     124     126     139     140     125     124     126     128
     125     124     126     139     125     124     126     127
     126     139     141     142     126     139     141     143
     126     128     131     134     126     128     131     132
     126     128     131     133     127     126     128     131
     127     126     128     129     127     126     128     130
     127     126     139     141     127     126     139     140
     128     131     134     136     128     131     134     135
     128     126     139     141     128     126     139     140
     129     128     126     139     129     128     131     134
     129     128     131     132     129     128     131     133
     130     128     126     139     130     128     131     134
     130     128     131     132     130     128     131     133
     131     134     136     137     131     134     136     138
     131     128     126     139     132     131     134     136
     132     131     134     135     133     131     134     136
     133     131     134     135     135     134     136     137
     135     134     136     138     139     141     143     145
     139     141     143     160     139     141     143     144
     140     139     141     142     140     139     141     143
     141     143     145     148     141     143     145     146
     141     143     145     147     141     143     160     162
     141     143     160     161     142     141     143     145
     142     141     143     160     142     141     143     144
     143     160     162     163     143     160     162     164
     143     145     148     156     143     145     148     149
     144     143     145     148     144     143     145     146
     144     143     145     147     144     143     160     162
     144     143     160     161     145     148     156     157
     145     148     156     158     145     148     149     151
     145     148     149     150     145     143     160     162
     145     143     160     161     146     145     143     160
     146     145     148     156     146     145     148     149
     147     145     143     160     147     145     148     156
     147     145     148     149     148     156     158     153
     148     156     158     159     148     149     151     152
     148     149     151     153     148     145     143     160
     149     151     153     158     149     151     153     154
     149     148     156     157     149     148     156     158
     150     149     151     152     150     149     151     153
     150     149     148     156     151     153     158     159
     151     153     158     156     151     153     154     155
     151     149     148     156     152     151     153     158
     152     151     153     154     153     158     156     157
     154     153     158     159     154     153     158     156
     155     154     153     158     157     156     158     159
     160     162     164     166     160     162     164     177
     160     162     164     165     161     160     162     163
     161     160     162     164     162     164     166     169
     162     164     166     167     162     164     166     168
     162     164     177     179     162     164     177     178
     163     162     164     166     163     162     164     177
     163     162     164     165     164     177     179     180
     164     177     179     181     164     166     169     172
     164     166     169     170     164     166     169     171
     165     164     166     169     165     164     166     167
     165     164     166     168     165     164     177     179
     165     164     177     178     166     169     172     174
     166     169     172     173     166     164     177     179
     166     164     177     178     167     166     164     177
     167     166     169     172     167     166     169     170
     167     166     169     171     168     166     164     177
     168     166     169     172     168     166     169     170
     168     166     169     171     169     172     174     175
     169     172     174     176     169     166     164     177
     170     169     172     174     170     169     172     173
     171     169     172     174     171     169     172     173
     173     172     174     175     173     172     174     176
     177     179     181     183     177     179     181     187
     177     179     181     182     178     177     179     180
     178     177     179     181     179     181     183     184
     179     181     183     185     179     181     183     186
     179     181     187     189     179     181     187     188
     180     179     181     183     180     179     181     187
     180     179     181     182     181     187     189     193
     181     187     189     190     182     181     183     184
     182     181     183     185     182     181     183     186
     182     181     187     189     182     181     187     188
     183     181     187     189     183     181     187     188
     184     183     181     187     185     183     181     187
     186     183     181     187     187     189     193     201
     187     189     193     195     187     189     193     194
     187     189     190     198     187     189     190     191
     187     189     190     192     188     187     189     193
     188     187     189     190     189     193     201     203
     189     193     201     202     189     193     195     198
     189     193     195     196     189     193     195     197
     189     190     198     195     189     190     198     199
     189     190     198     200     190     198     195     193
     190     198     195     196     190     198     195     197
     190     189     193     201     190     189     193     195
     190     189     193     194     191     190     198     195
     191     190     198     199     191     190     198     200
     191     190     189     193     192     190     198     195
     192     190     198     199     192     190     198     200
     192     190     189     193     193     201     203     204
     193     201     203     205     193     195     198     199
     193     195     198     200     193     189     190     198
     194     193     201     203     194     193     201     202
     194     193     195     198     194     193     195     196
     194     193     195     197     195     193     201     203
     195     193     201     202     196     195     193     201
     196     195     198     199     196     195     198     200
     197     195     193     201     197     195     198     199
     197     195     198     200     198     195     193     201
     201     203     205     207     201     203     205     213
     201     203     205     206     202     201     203     204
     202     201     203     205     203     205     207     210
     203     205     207     208     203     205     207     209
     203     205     213     215     203     205     213     214
     204     203     205     207     204     203     205     213
     204     203     205     206     205     213     215     216
     205     213     215     217     205     207     210     212
     205     207     210     211     206     205     207     210
     206     205     207     208     206     205     207     209
     206     205     213     215     206     205     213     214
     207     205     213     215     207     205     213     214
     208     207     205     213     208     207     210     212
     208     207     210     211     209     207     205     213
     209     207     210     212     209     207     210     211
     210     207     205     213     213     215     217     219
     213     215     217     230     213     215     217     218
     214     213     215     216     214     213     215     217
     215     217     219     222     215     217     219     220
     215     217     219     221     215     217     230     232
     215     217     230     231     216     215     217     219
     216     215     217     230     216     215     217     218
     217     230     232     233     217     230     232     234
     217     219     222     225     217     219     222     223
     217     219     222     224     218     217     219     222
     218     217     219     220     218     217     219     221
     218     217     230     232     218     217     230     231
     219     222     225     226     219     217     230     232
     219     217     230     231     220     219     217     230
     220     219     222     225     220     219     222     223
     220     219     222     224     221     219     217     230
     221     219     222     225     221     219     222     223
     221     219     222     224     222     225     226     227
     222     225     226     228     222     225     226     229
     222     219     217     230     223     222     225     226
     224     222     225     226     230     232     234     236
     230     232     234     242     230     232     234     235
     231     230     232     233     231     230     232     234
     232     234     236     239     232     234     236     237
     232     234     236     238     232     234     242     244
     232     234     242     243     233     232     234     236
     233     232     234     242     233     232     234     235
     234     242     244     245     234     242     244     246
     234     236     239     241     234     236     239     240
     235     234     236     239     235     234     236     237
     235     234     236     238     235     234     242     244
     235     234     242     243     236     234     242     244
     236     234     242     243     237     236     234     242
     237     236     239     241     237     236     239     240
     238     236     234     242     238     236     239     241
     238     236     239     240     239     236     234     242
     242     244     246     248     242     244     246     256
     242     244     246     247     243     242     244     245
     243     242     244     246     244     246     248     250
     244     246     248     252     244     246     248     249
     244     246     256     258     244     246     256     257
     245     244     246     248     245     244     246     256
     245     244     246     247     246     256     258     259
     246     256     258     260     246     248     250     251
     246     248     252     253     246     248     252     254
     246     248     252     255     247     246     248     250
     247     246     248     252     247     246     248     249
     247     246     256     258     247     246     256     257
     248     246     256     258     248     246     256     257
     249     248     246     256     249     248     250     251
     249     248     252     253     249     248     252     254
     249     248     252     255     250     248     246     256
     250     248     252     253     250     248     252     254
     250     248     252     255     251     250     248     252
     252     248     246     256     256     258     260     262
     256     258     260     275     256     258     260     261
     257     256     258     259     257     256     258     260
     258     260     262     265     258     260     262     263
     258     260     262     264     258     260     275     277
     258     260     275     276     259     258     260     262
     259     258     260     275     259     258     260     261
     260     275     277     278     260     275     277     279
     260     262     265     267     260     262     265     271
     260     262     265     266     261     260     262     265
     261     260     262     263     261     260     262     264
     261     260     275     277     261     260     275     276
     262     265     267     268     262     265     267     269
     262     265     267     270     262     265     271     272
     262     265     271     273     262     265     271     274
     262     260     275     277     262     260     275     276
     263     262     260     275     263     262     265     267
     263     262     265     271     263     262     265     266
     264     262     260     275     264     262     265     267
     264     262     265     271     264     262     265     266
     265     262     260     275     266     265     267     268
     266     265     267     269     266     265     267     270
     266     265     271     272     266     265     271     273
     266     265     271     274     267     265     271     272
     267     265     271     273     267     265     271     274
     268     267     265     271     269     267     265     271
     270     267     265     271     275     277     279     281
     275     277     279     292     275     277     279     280
     276     275     277     278     276     275     277     279
     277     279     281     284     277     279     281     282
     277     279     281     283     277     279     292     294
     277     279     292     293     278     277     279     281
     278     277     279     292     278     277     279     280
     279     292     294     295     279     292     294     296
     279     281     284     287     279     281     284     285
     279     281     284     286     280     279     281     284
     280     279     281     282     280     279     281     283
     280     279     292     294     280     279     292     293
     281     284     287     289     281     284     287     288
     281     279     292     294     281     279     292     293
     282     281     279     292     282     281     284     287
     282     281     284     285     282     281     284     286
     283     281     279     292     283     281     284     287
     283     281     284     285     283     281     284     286
     284     287     289     290     284     287     289     291
     284     281     279     292     285     284     287     289
     285     284     287     288     286     284     287     289
     286     284     287     288     288     287     289     290
     288     287     289     291     292     294     296     298
     292     294     296     311     292     294     296     297
     293     292     294     295     293     292     294     296
     294     296     298     304     294     296     298     300
     294     296     298     299     294     296     311     313
     294     296     311     312     295     294     296     298
     295     294     296     311     295     294     296     297
     296     311     313     314     296     311     313     315
     296     298     304     307     296     298     304     305
     296     298     304     306     296     298     300     301
     296     298     300     302     296     298     300     303
     297     296     298     304     297     296     298     300
     297     296     298     299     297     296     311     313
     297     296     311     312     298     304     307     308
     298     304     307     309     298     304     307     310
     298     296     311     313     298     296     311     312
     299     298     296     311     299     298     304     307
     299     298     304     305     299     298     304     306
     299     298     300     301     299     298     300     302
     299     298     300     303     300     298     296     311
     300     298     304     307     300     298     304     305
     300     298     304     306     301     300     298     304
     302     300     298     304     303     300     298     304
     304     298     296     311     305     304     307     308
     305     304     307     309     305     304     307     310
     306     304     307     308     306     304     307     309
     306     304     307     310     311     313     315     317
     311     313     315     328     311     313     315     316
     312     311     313     314     312     311     313     315
     313     315     317     322     313     315     317     318
     313     315     317     319     313     315     328     330
     313     315     328     329     314     313     315     317
     314     313     315     328     314     313     315     316
     315     328     330     331     315     328     330     332
     315     317     322     320     315     317     322     326
     316     315     317     322     316     315     317     318
     316     315     317     319     316     315     328     330
     316     315     328     329     317     322     320     323
     317     322     320     321     317     322     326     325
     317     322     326     327     317     315     328     330
     317     315     328     329     318     317     315     328
     318     317     322     320     318     317     322     326
     319     317     315     328     319     317     322     320
     319     317     322     326     320     323     325     326
     320     322     326     325     320     322     326     327
     321     320     322     326     321     320     323     324
     321     320     323     325     322     326     325     323
     322     320     323     324     322     320     323     325
     322     317     315     328     323     325     326     327
     323     320     322     326     324     323     325     326
     328     330     332     334     328     330     332     344
     328     330     332     333     329     328     330     331
     329     328     330     332     330     332     334     336
     330     332     334     340     330     332     334     335
     330     332     344     346     330     332     344     345
     331     330     332     334     331     330     332     344
     331     330     332     333     332     344     346     347
     332     344     346     348     332     334     336     337
     332     334     336     338     332     334     336     339
     332     334     340     341     332     334     340     342
     332     334     340     343     333     332     334     336
     333     332     334     340     333     332     334     335
     333     332     344     346     333     332     344     345
     334     332     344     346     334     332     344     345
     335     334     332     344     335     334     336     337
     335     334     336     338     335     334     336     339
     335     334     340     341     335     334     340     342
     335     334     340     343     336     334     332     344
     336     334     340     341     336     334     340     342
     336     334     340     343     337     336     334     340
     338     336     334     340     339     336     334     340
     340     334     332     344     344     346     348     350
     344     346     348     361     344     346     348     349
     345     344     346     347     345     344     346     348
     346     348     350     353     346     348     350     351
     346     348     350     352     346     348     361     363
     346     348     361     362     347     346     348     350
     347     346     348     361     347     346     348     349
     348     361     363     364     348     361     363     365
     348     350     353     356     348     350     353     354
     348     350     353     355     349     348     350     353
     349     348     350     351     349     348     350     352
     349     348     361     363     349     348     361     362
     350     353     356     357     350     348     361     363
     350     348     361     362     351     350     348     361
     351     350     353     356     351     350     353     354
     351     350     353     355     352     350     348     361
     352     350     353     356     352     350     353     354
     352     350     353     355     353     356     357     358
     353     356     357     359     353     356     357     360
     353     350     348     361     354     353     356     357
     355     353     356     357     361     363     365     367
     361     363     365     376     361     363     365     366
     362     361     363     364     362     361     363     365
     363     365     367     370     363     365     367     368
     363     365     367     369     363     365     376     380
     363     365     376     377     364     363     365     367
     364     363     365     376     364     363     365     366
     365     376     380     381     365     376     380     382
     365     367     370     373     365     367     370     371
     365     367     370     372     366     365     367     370
     366     365     367     368     366     365     367     369
     366     365     376     380     366     365     376     377
     367     370     373     375     367     370     373     374
     367     365     376     380     367     365     376     377
     368     367     365     376     368     367     370     373
     368     367     370     371     368     367     370     372
     369     367     365     376     369     367     370     373
     369     367     370     371     369     367     370     372
     370     367     365     376     371     370     373     375
     371     370     373     374     372     370     373     375
     372     370     373     374     376     380     382     378
     376     380     382     386     376     380     382     383
     377     376     380     381     377     376     380     382
     378     382     386     388     378     382     386     387
     379     378     382     386     380     382     378     379
     380     382     378     384     380     382     378     385
     380     382     386     388     380     382     386     387
     381     380     382     378     381     380     382     386
     381     380     382     383     382     386     388     389
     382     386     388     390     383     382     378     379
     383     382     378     384     383     382     378     385
     383     382     386     388     383     382     386     387
     384     378     382     386     385     378     382     386
     386     388     390     392     386     388     390     405
     386     388     390     391     387     386     388     389
     387     386     388     390     388     390     392     398
     388     390     392     394     388     390     392     393
     388     390     405     410     388     390     405     406
     389     388     390     392     389     388     390     405
     389     388     390     391     390     405     410     411
     390     405     410     412     390     392     398     401
     390     392     398     399     390     392     398     400
     390     392     394     395     390     392     394     396
     390     392     394     397     391     390     392     398
     391     390     392     394     391     390     392     393
     391     390     405     410     391     390     405     406
     392     398     401     402     392     398     401     403
     392     398     401     404     392     390     405     410
     392     390     405     406     393     392     390     405
     393     392     398     401     393     392     398     399
     393     392     398     400     393     392     394     395
     393     392     394     396     393     392     394     397
     394     392     390     405     394     392     398     401
     394     392     398     399     394     392     398     400
     395     394     392     398     396     394     392     398
     397     394     392     398     398     392     390     405
     399     398     401     402     399     398     401     403
     399     398     401     404     400     398     401     402
     400     398     401     403     400     398     401     404
     405     410     412     414     405     410     412     407
     405     410     412     413     406     405     410     411
     406     405     410     412     407     412     414     417
     407     412     414     415     407     412     414     416
     407     412     410     411     408     407     412     414
     408     407     412     410     408     407     412     413
     409     407     412     414     409     407     412     410
     409     407     412     413     410     412     414     417
     410     412     414     415     410     412     414     416
     411     410     412     414     411     410     412     413
     412     414     417     420     412     414     417     418
     412     414     417     419     413     412     414     417
     413     412     414     415     413     412     414     416
     414     417     420     422     414     417     420     421
     415     414     417     420     415     414     417     418
     415     414     417     419     416     414     417     420
     416     414     417     418     416     414     417     419
     418     417     420     422     418     417     420     421
     419     417     420     422     419     417     420     421

      78 !NIMPHI: impropers
      12       5      14      13      14      12      16      15
      23      16      25      24      25      23      27      26
      32      29      34      33      35      27      37      36
      37      35      39      38      55      39      57      56
      57      55      59      58      66      59      70      67
      70      66      72      71      76      72      78      77
      78      76      82      79      90      82      92      91
      92      90      94      93     112      94     116     113
     116     112     118     117     122     118     124     123
     124     122     126     125     134     136     131     135
     134     131     136     135     136     134     137     138
     136     134     138     137     139     126     141     140
     141     139     143     142     160     143     162     161
     162     160     164     163     172     174     169     173
     172     169     174     173     174     172     175     176
     174     172     176     175     177     164     179     178
     179     177     181     180     187     181     189     188
     189     187     193     190     201     193     203     202
     203     201     205     204     210     207     212     211
     213     205     215     214     215     213     217     216
     230     217     232     231     232     230     234     233
     239     236     241     240     242     234     244     243
     244     242     246     245     256     246     258     257
     258     256     260     259     275     260     277     276
     277     275     279     278     287     289     284     288
     287     284     289     288     289     287     290     291
     289     287     291     290     292     279     294     293
     294     292     296     295     311     296     313     312
     313     311     315     314     320     322     323     321
     320     323     322     321     323     320     325     324
     323     325     320     324     326     322     325     327
     326     325     322     327     328     315     330     329
     330     328     332     331     344     332     346     345
     346     344     348     347     361     348     363     362
     363     361     365     364     373     370     375     374
     376     365     380     377     380     376     382     381
     386     382     388     387     388     386     390     389
     405     390     410     406     407     412     409     408
     410     405     412     411     420     417     422     421

       0 !NDON: donors


       0 !NACC: acceptors


       0 !NNB

       0       0       0       0       0       0       0       0
       0       0       0       0       0       0       0       0
       0       0       0       0       0       0       0       0
       0       0       0       0       0       0       0       0
       0       0       0       0       0       0       0       0
       0       0       0       0       0       0       0       0
       0       0       0       0       0       0       0       0
       0       0       0       0       0       0       0       0
       0       0       0       0       0       0       0       0
       0       0       0       0       0       0       0       0
       0       0       0       0       0       0       0       0
       0       0       0       0       0       0       0       0
       0       0       0       0       0       0       0       0
       0       0       0       0       0       0       0       0
       0       0       0       0       0       0       0       0
       0       0       0       0       0       0       0       0
       0       0       0       0       0       0       0       0
       0       0       0       0       0       0       0       0
       0       0       0       0       0       0       0       0
       0       0       0       0       0       0       0       0
       0       0       0       0       0       0       0       0
       0       0       0       0       0       0       0       0
       0       0       0       0       0       0       0       0
       0       0       0       0       0       0       0       0
       0       0       0       0       0       0       0       0
       0       0       0       0       0       0       0       0
       0       0       0       0       0       0       0       0
       0       0       0       0       0       0       0       0
       0       0       0       0       0       0       0       0
       0       0       0       0       0       0       0       0
       0       0       0       0       0       0       0       0
       0       0       0       0       0       0       0       0
       0       0       0       0       0       0       0       0
       0       0       0       0       0       0       0       0
       0       0       0       0       0       0       0       0
       0       0       0       0       0       0       0       0
       0       0       0       0       0       0       0       0
       0       0       0       0       0       0       0       0
       0       0       0       0       0       0       0       0
       0       0       0       0       0       0       0       0
       0       0       0       0       0       0       0       0
       0       0       0       0       0       0       0       0
       0       0       0       0       0       0       0       0
       0       0       0       0       0       0       0       0
       0       0       0       0       0       0       0       0
       0       0       0       0       0       0       0       0
       0       0       0       0       0       0       0       0
       0       0       0       0       0       0       0       0
       0       0       0       0       0       0       0       0
       0       0       0       0       0       0       0       0
       0       0       0       0       0       0       0       0
       0       0       0       0       0       0       0       0
       0       0       0       0       0       0       0

       1       0 !NGRP
       0       0       0

